<?xml version="1.0" encoding="UTF-8"?>

<!-- generated on 2025-03-24 18:57:24 by Eclipse SUMO sumo Version 1.22.0
<sumoConfiguration xmlns:xsi="http://www.w3.org/2001/XMLSchema-instance" xsi:noNamespaceSchemaLocation="http://sumo.dlr.de/xsd/sumoConfiguration.xsd">

    <input>
        <net-file value="KSUMarietta.net.xml.gz"/>
        <route-files value="osm.pedestrian.rou.xml"/>
        <additional-files value="osm.poly.xml.gz"/>
    </input>

    <output>
        <summary-output value="summary.xml"/>
        <tripinfo-output value="tripinfo.xml"/>
        <edgedata-output value="edgestats.xml"/>
    </output>

    <processing>
        <ignore-route-errors value="true"/>
        <tls.actuated.jam-threshold value="30"/>
    </processing>

    <routing>
        <device.rerouting.adaptation-steps value="18"/>
        <device.rerouting.adaptation-interval value="10"/>
    </routing>

    <report>
        <verbose value="true"/>
        <duration-log.statistics value="true"/>
        <no-step-log value="true"/>
    </report>

    <traci_server>
        <remote-port value="52749"/>
    </traci_server>

    <gui_only>
        <gui-settings-file value="osm.view.xml"/>
    </gui_only>

</sumoConfiguration>
-->

<tripinfos xmlns:xsi="http://www.w3.org/2001/XMLSchema-instance" xsi:noNamespaceSchemaLocation="http://sumo.dlr.de/xsd/tripinfo_file.xsd">
    <personinfo id="ped_30" depart="11.00" type="ped_pedestrian@ped_30" speedFactor="0.93" duration="1.00" waitingTime="0.00" timeLoss="0.90" traveltime="1.00">
        <walk depart="11.00" departPos="26.34" arrival="12.00" arrivalPos="26.34" duration="1.00" routeLength="0.10" timeLoss="0.90" maxSpeed="0.99"/>
    </personinfo>
    <personinfo id="ped_2904" depart="11.00" type="ped_pedestrian@ped_2904" speedFactor="1.04" duration="1.00" waitingTime="0.00" timeLoss="0.91" traveltime="1.00">
        <walk depart="11.00" departPos="13.28" arrival="12.00" arrivalPos="13.28" duration="1.00" routeLength="0.10" timeLoss="0.91" maxSpeed="1.05"/>
    </personinfo>
    <personinfo id="ped_4799" depart="13.00" type="ped_pedestrian@ped_4799" speedFactor="1.00" duration="1.00" waitingTime="0.00" timeLoss="0.95" traveltime="1.00">
        <walk depart="13.00" departPos="26.34" arrival="14.00" arrivalPos="26.34" duration="1.00" routeLength="0.10" timeLoss="0.95" maxSpeed="1.97"/>
    </personinfo>
    <personinfo id="ped_6071" depart="13.00" type="ped_pedestrian@ped_6071" speedFactor="1.09" duration="1.00" waitingTime="0.00" timeLoss="0.93" traveltime="1.00">
        <walk depart="13.00" departPos="61.90" arrival="14.00" arrivalPos="61.90" duration="1.00" routeLength="0.10" timeLoss="0.93" maxSpeed="1.37"/>
    </personinfo>
    <personinfo id="ped_2269" depart="13.00" type="ped_pedestrian@ped_2269" speedFactor="0.78" duration="1.00" waitingTime="0.00" timeLoss="0.89" traveltime="1.00">
        <walk depart="13.00" departPos="109.09" arrival="14.00" arrivalPos="109.09" duration="1.00" routeLength="0.10" timeLoss="0.89" maxSpeed="0.94"/>
    </personinfo>
    <personinfo id="ped_1947" depart="15.00" type="ped_pedestrian@ped_1947" speedFactor="0.75" duration="1.00" waitingTime="0.00" timeLoss="0.94" traveltime="1.00">
        <walk depart="15.00" departPos="61.90" arrival="16.00" arrivalPos="61.90" duration="1.00" routeLength="0.10" timeLoss="0.94" maxSpeed="1.66"/>
    </personinfo>
    <personinfo id="ped_6612" depart="15.00" type="ped_pedestrian@ped_6612" speedFactor="1.00" duration="1.00" waitingTime="0.00" timeLoss="0.91" traveltime="1.00">
        <walk depart="15.00" departPos="109.09" arrival="16.00" arrivalPos="109.09" duration="1.00" routeLength="0.10" timeLoss="0.91" maxSpeed="1.13"/>
    </personinfo>
    <personinfo id="ped_6910" depart="15.00" type="ped_pedestrian@ped_6910" speedFactor="0.95" duration="1.00" waitingTime="0.00" timeLoss="0.92" traveltime="1.00">
        <walk depart="15.00" departPos="109.09" arrival="16.00" arrivalPos="109.09" duration="1.00" routeLength="0.10" timeLoss="0.92" maxSpeed="1.32"/>
    </personinfo>
    <personinfo id="ped_924" depart="15.00" type="ped_pedestrian@ped_924" speedFactor="1.12" duration="1.00" waitingTime="0.00" timeLoss="0.94" traveltime="1.00">
        <walk depart="15.00" departPos="13.28" arrival="16.00" arrivalPos="13.28" duration="1.00" routeLength="0.10" timeLoss="0.94" maxSpeed="1.63"/>
    </personinfo>
    <personinfo id="ped_1900" depart="16.00" type="ped_pedestrian@ped_1900" speedFactor="1.07" duration="1.00" waitingTime="0.00" timeLoss="0.95" traveltime="1.00">
        <walk depart="16.00" departPos="61.90" arrival="17.00" arrivalPos="61.90" duration="1.00" routeLength="0.10" timeLoss="0.95" maxSpeed="2.00"/>
    </personinfo>
    <personinfo id="ped_1377" depart="24.00" type="ped_pedestrian@ped_1377" speedFactor="1.08" duration="1.00" waitingTime="0.00" timeLoss="0.89" traveltime="1.00">
        <walk depart="24.00" departPos="2.13" arrival="25.00" arrivalPos="2.13" duration="1.00" routeLength="0.10" timeLoss="0.89" maxSpeed="0.87"/>
    </personinfo>
    <personinfo id="ped_1439" depart="25.00" type="ped_pedestrian@ped_1439" speedFactor="0.80" duration="1.00" waitingTime="0.00" timeLoss="0.92" traveltime="1.00">
        <walk depart="25.00" departPos="2.13" arrival="26.00" arrivalPos="2.13" duration="1.00" routeLength="0.10" timeLoss="0.92" maxSpeed="1.20"/>
    </personinfo>
    <personinfo id="ped_5084" depart="26.00" type="ped_pedestrian@ped_5084" speedFactor="0.94" duration="1.00" waitingTime="0.00" timeLoss="0.91" traveltime="1.00">
        <walk depart="26.00" departPos="13.28" arrival="27.00" arrivalPos="13.28" duration="1.00" routeLength="0.10" timeLoss="0.91" maxSpeed="1.07"/>
    </personinfo>
    <personinfo id="ped_268" depart="27.00" type="ped_pedestrian@ped_268" speedFactor="0.92" duration="1.00" waitingTime="0.00" timeLoss="0.95" traveltime="1.00">
        <walk depart="27.00" departPos="26.34" arrival="28.00" arrivalPos="26.34" duration="1.00" routeLength="0.10" timeLoss="0.95" maxSpeed="1.88"/>
    </personinfo>
    <personinfo id="ped_2651" depart="27.00" type="ped_pedestrian@ped_2651" speedFactor="0.95" duration="1.00" waitingTime="0.00" timeLoss="0.94" traveltime="1.00">
        <walk depart="27.00" departPos="109.09" arrival="28.00" arrivalPos="109.09" duration="1.00" routeLength="0.10" timeLoss="0.94" maxSpeed="1.75"/>
    </personinfo>
    <personinfo id="ped_5063" depart="27.00" type="ped_pedestrian@ped_5063" speedFactor="1.00" duration="1.00" waitingTime="0.00" timeLoss="0.91" traveltime="1.00">
        <walk depart="27.00" departPos="13.28" arrival="28.00" arrivalPos="13.28" duration="1.00" routeLength="0.10" timeLoss="0.91" maxSpeed="1.11"/>
    </personinfo>
    <personinfo id="ped_3070" depart="28.00" type="ped_pedestrian@ped_3070" speedFactor="1.04" duration="1.00" waitingTime="0.00" timeLoss="0.88" traveltime="1.00">
        <walk depart="28.00" departPos="12.92" arrival="29.00" arrivalPos="12.92" duration="1.00" routeLength="0.10" timeLoss="0.88" maxSpeed="0.85"/>
    </personinfo>
    <personinfo id="ped_6236" depart="32.00" type="ped_pedestrian@ped_6236" speedFactor="0.97" duration="1.00" waitingTime="0.00" timeLoss="0.90" traveltime="1.00">
        <walk depart="32.00" departPos="61.90" arrival="33.00" arrivalPos="61.90" duration="1.00" routeLength="0.10" timeLoss="0.90" maxSpeed="1.03"/>
    </personinfo>
    <personinfo id="ped_3198" depart="33.00" type="ped_pedestrian@ped_3198" speedFactor="0.91" duration="1.00" waitingTime="0.00" timeLoss="0.92" traveltime="1.00">
        <walk depart="33.00" departPos="61.90" arrival="34.00" arrivalPos="61.90" duration="1.00" routeLength="0.10" timeLoss="0.92" maxSpeed="1.29"/>
    </personinfo>
    <personinfo id="ped_4613" depart="34.00" type="ped_pedestrian@ped_4613" speedFactor="0.90" duration="1.00" waitingTime="0.00" timeLoss="0.86" traveltime="1.00">
        <walk depart="34.00" departPos="26.34" arrival="35.00" arrivalPos="26.34" duration="1.00" routeLength="0.10" timeLoss="0.86" maxSpeed="0.72"/>
    </personinfo>
    <personinfo id="ped_4740" depart="34.00" type="ped_pedestrian@ped_4740" speedFactor="1.02" duration="1.00" waitingTime="0.00" timeLoss="0.92" traveltime="1.00">
        <walk depart="34.00" departPos="26.34" arrival="35.00" arrivalPos="26.34" duration="1.00" routeLength="0.10" timeLoss="0.92" maxSpeed="1.27"/>
    </personinfo>
    <personinfo id="ped_6277" depart="34.00" type="ped_pedestrian@ped_6277" speedFactor="1.22" duration="1.00" waitingTime="0.00" timeLoss="0.90" traveltime="1.00">
        <walk depart="34.00" departPos="61.90" arrival="35.00" arrivalPos="61.90" duration="1.00" routeLength="0.10" timeLoss="0.90" maxSpeed="0.99"/>
    </personinfo>
    <personinfo id="ped_6738" depart="34.00" type="ped_pedestrian@ped_6738" speedFactor="1.09" duration="1.00" waitingTime="0.00" timeLoss="0.93" traveltime="1.00">
        <walk depart="34.00" departPos="109.09" arrival="35.00" arrivalPos="109.09" duration="1.00" routeLength="0.10" timeLoss="0.93" maxSpeed="1.44"/>
    </personinfo>
    <personinfo id="ped_868" depart="36.00" type="ped_pedestrian@ped_868" speedFactor="0.75" duration="1.00" waitingTime="0.00" timeLoss="0.91" traveltime="1.00">
        <walk depart="36.00" departPos="13.28" arrival="37.00" arrivalPos="13.28" duration="1.00" routeLength="0.10" timeLoss="0.91" maxSpeed="1.10"/>
    </personinfo>
    <personinfo id="ped_2841" depart="39.00" type="ped_pedestrian@ped_2841" speedFactor="0.83" duration="1.00" waitingTime="0.00" timeLoss="0.94" traveltime="1.00">
        <walk depart="39.00" departPos="26.34" arrival="40.00" arrivalPos="26.34" duration="1.00" routeLength="0.10" timeLoss="0.94" maxSpeed="1.78"/>
    </personinfo>
    <personinfo id="ped_423" depart="40.00" type="ped_pedestrian@ped_423" speedFactor="0.97" duration="1.00" waitingTime="0.00" timeLoss="0.94" traveltime="1.00">
        <walk depart="40.00" departPos="26.34" arrival="41.00" arrivalPos="26.34" duration="1.00" routeLength="0.10" timeLoss="0.94" maxSpeed="1.67"/>
    </personinfo>
    <personinfo id="ped_189" depart="41.00" type="ped_pedestrian@ped_189" speedFactor="0.97" duration="1.00" waitingTime="0.00" timeLoss="0.90" traveltime="1.00">
        <walk depart="41.00" departPos="26.34" arrival="42.00" arrivalPos="26.34" duration="1.00" routeLength="0.10" timeLoss="0.90" maxSpeed="1.00"/>
    </personinfo>
    <personinfo id="ped_1565" depart="43.00" type="ped_pedestrian@ped_1565" speedFactor="0.99" duration="1.00" waitingTime="0.00" timeLoss="0.88" traveltime="1.00">
        <walk depart="43.00" departPos="12.92" arrival="44.00" arrivalPos="12.92" duration="1.00" routeLength="0.10" timeLoss="0.88" maxSpeed="0.83"/>
    </personinfo>
    <personinfo id="ped_2366" depart="43.00" type="ped_pedestrian@ped_2366" speedFactor="0.95" duration="1.00" waitingTime="0.00" timeLoss="0.94" traveltime="1.00">
        <walk depart="43.00" departPos="109.09" arrival="44.00" arrivalPos="109.09" duration="1.00" routeLength="0.10" timeLoss="0.94" maxSpeed="1.64"/>
    </personinfo>
    <personinfo id="ped_3337" depart="44.00" type="ped_pedestrian@ped_3337" speedFactor="0.93" duration="1.00" waitingTime="0.00" timeLoss="0.93" traveltime="1.00">
        <walk depart="44.00" departPos="61.90" arrival="45.00" arrivalPos="61.90" duration="1.00" routeLength="0.10" timeLoss="0.93" maxSpeed="1.47"/>
    </personinfo>
    <personinfo id="ped_979" depart="44.00" type="ped_pedestrian@ped_979" speedFactor="1.00" duration="1.00" waitingTime="0.00" timeLoss="0.93" traveltime="1.00">
        <walk depart="44.00" departPos="13.28" arrival="45.00" arrivalPos="13.28" duration="1.00" routeLength="0.10" timeLoss="0.93" maxSpeed="1.40"/>
    </personinfo>
    <personinfo id="ped_813" depart="46.00" type="ped_pedestrian@ped_813" speedFactor="1.12" duration="1.00" waitingTime="0.00" timeLoss="0.90" traveltime="1.00">
        <walk depart="46.00" departPos="13.28" arrival="47.00" arrivalPos="13.28" duration="1.00" routeLength="0.10" timeLoss="0.90" maxSpeed="1.00"/>
    </personinfo>
    <personinfo id="ped_4109" depart="47.00" type="ped_pedestrian@ped_4109" speedFactor="1.01" duration="1.00" waitingTime="0.00" timeLoss="0.94" traveltime="1.00">
        <walk depart="47.00" departPos="109.09" arrival="48.00" arrivalPos="109.09" duration="1.00" routeLength="0.10" timeLoss="0.94" maxSpeed="1.55"/>
    </personinfo>
    <personinfo id="ped_1366" depart="48.00" type="ped_pedestrian@ped_1366" speedFactor="0.92" duration="1.00" waitingTime="0.00" timeLoss="0.94" traveltime="1.00">
        <walk depart="48.00" departPos="2.13" arrival="49.00" arrivalPos="2.13" duration="1.00" routeLength="0.10" timeLoss="0.94" maxSpeed="1.54"/>
    </personinfo>
    <personinfo id="ped_2299" depart="49.00" type="ped_pedestrian@ped_2299" speedFactor="0.92" duration="1.00" waitingTime="0.00" timeLoss="0.95" traveltime="1.00">
        <walk depart="49.00" departPos="109.09" arrival="50.00" arrivalPos="109.09" duration="1.00" routeLength="0.10" timeLoss="0.95" maxSpeed="1.93"/>
    </personinfo>
    <personinfo id="ped_3959" depart="49.00" type="ped_pedestrian@ped_3959" speedFactor="1.08" duration="1.00" waitingTime="0.00" timeLoss="0.92" traveltime="1.00">
        <walk depart="49.00" departPos="109.09" arrival="50.00" arrivalPos="109.09" duration="1.00" routeLength="0.10" timeLoss="0.92" maxSpeed="1.24"/>
    </personinfo>
    <personinfo id="ped_3038" depart="50.00" type="ped_pedestrian@ped_3038" speedFactor="1.05" duration="1.00" waitingTime="0.00" timeLoss="0.94" traveltime="1.00">
        <walk depart="50.00" departPos="12.92" arrival="51.00" arrivalPos="12.92" duration="1.00" routeLength="0.10" timeLoss="0.94" maxSpeed="1.71"/>
    </personinfo>
    <personinfo id="ped_5158" depart="50.00" type="ped_pedestrian@ped_5158" speedFactor="0.91" duration="1.00" waitingTime="0.00" timeLoss="0.92" traveltime="1.00">
        <walk depart="50.00" departPos="13.28" arrival="51.00" arrivalPos="13.28" duration="1.00" routeLength="0.10" timeLoss="0.92" maxSpeed="1.24"/>
    </personinfo>
    <personinfo id="ped_327" depart="51.00" type="ped_pedestrian@ped_327" speedFactor="0.93" duration="1.00" waitingTime="0.00" timeLoss="0.88" traveltime="1.00">
        <walk depart="51.00" departPos="26.34" arrival="52.00" arrivalPos="26.34" duration="1.00" routeLength="0.10" timeLoss="0.88" maxSpeed="0.82"/>
    </personinfo>
    <personinfo id="ped_2182" depart="51.00" type="ped_pedestrian@ped_2182" speedFactor="1.08" duration="1.00" waitingTime="0.00" timeLoss="0.95" traveltime="1.00">
        <walk depart="51.00" departPos="61.90" arrival="52.00" arrivalPos="61.90" duration="1.00" routeLength="0.10" timeLoss="0.95" maxSpeed="1.97"/>
    </personinfo>
    <personinfo id="ped_2592" depart="51.00" type="ped_pedestrian@ped_2592" speedFactor="1.07" duration="1.00" waitingTime="0.00" timeLoss="0.94" traveltime="1.00">
        <walk depart="51.00" departPos="109.09" arrival="52.00" arrivalPos="109.09" duration="1.00" routeLength="0.10" timeLoss="0.94" maxSpeed="1.61"/>
    </personinfo>
    <personinfo id="ped_1253" depart="52.00" type="ped_pedestrian@ped_1253" speedFactor="1.00" duration="1.00" waitingTime="0.00" timeLoss="0.95" traveltime="1.00">
        <walk depart="52.00" departPos="2.13" arrival="53.00" arrivalPos="2.13" duration="1.00" routeLength="0.10" timeLoss="0.95" maxSpeed="1.82"/>
    </personinfo>
    <personinfo id="ped_1883" depart="52.00" type="ped_pedestrian@ped_1883" speedFactor="0.90" duration="1.00" waitingTime="0.00" timeLoss="0.90" traveltime="1.00">
        <walk depart="52.00" departPos="61.90" arrival="53.00" arrivalPos="61.90" duration="1.00" routeLength="0.10" timeLoss="0.90" maxSpeed="0.96"/>
    </personinfo>
    <personinfo id="ped_1595" depart="54.00" type="ped_pedestrian@ped_1595" speedFactor="0.98" duration="1.00" waitingTime="0.00" timeLoss="0.90" traveltime="1.00">
        <walk depart="54.00" departPos="12.92" arrival="55.00" arrivalPos="12.92" duration="1.00" routeLength="0.10" timeLoss="0.90" maxSpeed="1.03"/>
    </personinfo>
    <personinfo id="ped_3853" depart="54.00" type="ped_pedestrian@ped_3853" speedFactor="0.93" duration="1.00" waitingTime="0.00" timeLoss="0.90" traveltime="1.00">
        <walk depart="54.00" departPos="109.09" arrival="55.00" arrivalPos="109.09" duration="1.00" routeLength="0.10" timeLoss="0.90" maxSpeed="1.04"/>
    </personinfo>
    <personinfo id="ped_5049" depart="54.00" type="ped_pedestrian@ped_5049" speedFactor="1.05" duration="1.00" waitingTime="0.00" timeLoss="0.93" traveltime="1.00">
        <walk depart="54.00" departPos="13.28" arrival="55.00" arrivalPos="13.28" duration="1.00" routeLength="0.10" timeLoss="0.93" maxSpeed="1.50"/>
    </personinfo>
    <personinfo id="ped_1726" depart="56.00" type="ped_pedestrian@ped_1726" speedFactor="1.01" duration="1.00" waitingTime="0.00" timeLoss="0.90" traveltime="1.00">
        <walk depart="56.00" departPos="61.90" arrival="57.00" arrivalPos="61.90" duration="1.00" routeLength="0.10" timeLoss="0.90" maxSpeed="0.99"/>
    </personinfo>
    <personinfo id="ped_4223" depart="56.00" type="ped_pedestrian@ped_4223" speedFactor="0.98" duration="1.00" waitingTime="0.00" timeLoss="0.89" traveltime="1.00">
        <walk depart="56.00" departPos="109.09" arrival="57.00" arrivalPos="109.09" duration="1.00" routeLength="0.10" timeLoss="0.89" maxSpeed="0.91"/>
    </personinfo>
    <personinfo id="ped_5706" depart="57.00" type="ped_pedestrian@ped_5706" speedFactor="1.04" duration="1.00" waitingTime="0.00" timeLoss="0.94" traveltime="1.00">
        <walk depart="57.00" departPos="2.13" arrival="58.00" arrivalPos="2.13" duration="1.00" routeLength="0.10" timeLoss="0.94" maxSpeed="1.77"/>
    </personinfo>
    <personinfo id="ped_4158" depart="57.00" type="ped_pedestrian@ped_4158" speedFactor="0.95" duration="1.00" waitingTime="0.00" timeLoss="0.93" traveltime="1.00">
        <walk depart="57.00" departPos="109.09" arrival="58.00" arrivalPos="109.09" duration="1.00" routeLength="0.10" timeLoss="0.93" maxSpeed="1.52"/>
    </personinfo>
    <personinfo id="ped_484" depart="58.00" type="ped_pedestrian@ped_484" speedFactor="0.99" duration="1.00" waitingTime="0.00" timeLoss="0.95" traveltime="1.00">
        <walk depart="58.00" departPos="26.34" arrival="59.00" arrivalPos="26.34" duration="1.00" routeLength="0.10" timeLoss="0.95" maxSpeed="1.90"/>
    </personinfo>
    <personinfo id="ped_5810" depart="59.00" type="ped_pedestrian@ped_5810" speedFactor="1.02" duration="1.00" waitingTime="0.00" timeLoss="0.94" traveltime="1.00">
        <walk depart="59.00" departPos="12.92" arrival="60.00" arrivalPos="12.92" duration="1.00" routeLength="0.10" timeLoss="0.94" maxSpeed="1.80"/>
    </personinfo>
    <personinfo id="ped_6381" depart="59.00" type="ped_pedestrian@ped_6381" speedFactor="1.07" duration="1.00" waitingTime="0.00" timeLoss="0.92" traveltime="1.00">
        <walk depart="59.00" departPos="61.90" arrival="60.00" arrivalPos="61.90" duration="1.00" routeLength="0.10" timeLoss="0.92" maxSpeed="1.17"/>
    </personinfo>
    <personinfo id="ped_308" depart="60.00" type="ped_pedestrian@ped_308" speedFactor="0.99" duration="1.00" waitingTime="0.00" timeLoss="0.92" traveltime="1.00">
        <walk depart="60.00" departPos="26.34" arrival="61.00" arrivalPos="26.34" duration="1.00" routeLength="0.10" timeLoss="0.92" maxSpeed="1.30"/>
    </personinfo>
    <personinfo id="ped_6025" depart="60.00" type="ped_pedestrian@ped_6025" speedFactor="0.94" duration="1.00" waitingTime="0.00" timeLoss="0.91" traveltime="1.00">
        <walk depart="60.00" departPos="61.90" arrival="61.00" arrivalPos="61.90" duration="1.00" routeLength="0.10" timeLoss="0.91" maxSpeed="1.14"/>
    </personinfo>
    <personinfo id="ped_5607" depart="61.00" type="ped_pedestrian@ped_5607" speedFactor="1.10" duration="1.00" waitingTime="0.00" timeLoss="0.94" traveltime="1.00">
        <walk depart="61.00" departPos="2.13" arrival="62.00" arrivalPos="2.13" duration="1.00" routeLength="0.10" timeLoss="0.94" maxSpeed="1.54"/>
    </personinfo>
    <personinfo id="ped_215" depart="61.00" type="ped_pedestrian@ped_215" speedFactor="0.83" duration="1.00" waitingTime="0.00" timeLoss="0.90" traveltime="1.00">
        <walk depart="61.00" departPos="26.34" arrival="62.00" arrivalPos="26.34" duration="1.00" routeLength="0.10" timeLoss="0.90" maxSpeed="0.95"/>
    </personinfo>
    <personinfo id="ped_512" depart="62.00" type="ped_pedestrian@ped_512" speedFactor="1.01" duration="1.00" waitingTime="0.00" timeLoss="0.92" traveltime="1.00">
        <walk depart="62.00" departPos="26.34" arrival="63.00" arrivalPos="26.34" duration="1.00" routeLength="0.10" timeLoss="0.92" maxSpeed="1.23"/>
    </personinfo>
    <personinfo id="ped_4905" depart="62.00" type="ped_pedestrian@ped_4905" speedFactor="0.94" duration="1.00" waitingTime="0.00" timeLoss="0.93" traveltime="1.00">
        <walk depart="62.00" departPos="13.28" arrival="63.00" arrivalPos="13.28" duration="1.00" routeLength="0.10" timeLoss="0.93" maxSpeed="1.34"/>
    </personinfo>
    <personinfo id="ped_5582" depart="63.00" type="ped_pedestrian@ped_5582" speedFactor="0.96" duration="1.00" waitingTime="0.00" timeLoss="0.93" traveltime="1.00">
        <walk depart="63.00" departPos="2.13" arrival="64.00" arrivalPos="2.13" duration="1.00" routeLength="0.10" timeLoss="0.93" maxSpeed="1.43"/>
    </personinfo>
    <personinfo id="ped_360" depart="63.00" type="ped_pedestrian@ped_360" speedFactor="0.86" duration="1.00" waitingTime="0.00" timeLoss="0.95" traveltime="1.00">
        <walk depart="63.00" departPos="26.34" arrival="64.00" arrivalPos="26.34" duration="1.00" routeLength="0.10" timeLoss="0.95" maxSpeed="1.89"/>
    </personinfo>
    <personinfo id="ped_4874" depart="63.00" type="ped_pedestrian@ped_4874" speedFactor="0.89" duration="1.00" waitingTime="0.00" timeLoss="0.95" traveltime="1.00">
        <walk depart="63.00" departPos="13.28" arrival="64.00" arrivalPos="13.28" duration="1.00" routeLength="0.10" timeLoss="0.95" maxSpeed="1.98"/>
    </personinfo>
    <personinfo id="ped_1772" depart="64.00" type="ped_pedestrian@ped_1772" speedFactor="0.98" duration="1.00" waitingTime="0.00" timeLoss="0.92" traveltime="1.00">
        <walk depart="64.00" departPos="61.90" arrival="65.00" arrivalPos="61.90" duration="1.00" routeLength="0.10" timeLoss="0.92" maxSpeed="1.28"/>
    </personinfo>
    <personinfo id="ped_3593" depart="64.00" type="ped_pedestrian@ped_3593" speedFactor="1.04" duration="1.00" waitingTime="0.00" timeLoss="0.92" traveltime="1.00">
        <walk depart="64.00" departPos="61.90" arrival="65.00" arrivalPos="61.90" duration="1.00" routeLength="0.10" timeLoss="0.92" maxSpeed="1.26"/>
    </personinfo>
    <personinfo id="ped_762" depart="64.00" type="ped_pedestrian@ped_762" speedFactor="1.13" duration="1.00" waitingTime="0.00" timeLoss="0.94" traveltime="1.00">
        <walk depart="64.00" departPos="13.28" arrival="65.00" arrivalPos="13.28" duration="1.00" routeLength="0.10" timeLoss="0.94" maxSpeed="1.63"/>
    </personinfo>
    <personinfo id="ped_3869" depart="65.00" type="ped_pedestrian@ped_3869" speedFactor="1.04" duration="1.00" waitingTime="0.00" timeLoss="0.95" traveltime="1.00">
        <walk depart="65.00" departPos="109.09" arrival="66.00" arrivalPos="109.09" duration="1.00" routeLength="0.10" timeLoss="0.95" maxSpeed="1.86"/>
    </personinfo>
    <personinfo id="ped_937" depart="65.00" type="ped_pedestrian@ped_937" speedFactor="1.11" duration="1.00" waitingTime="0.00" timeLoss="0.95" traveltime="1.00">
        <walk depart="65.00" departPos="13.28" arrival="66.00" arrivalPos="13.28" duration="1.00" routeLength="0.10" timeLoss="0.95" maxSpeed="1.86"/>
    </personinfo>
    <personinfo id="ped_955" depart="65.00" type="ped_pedestrian@ped_955" speedFactor="0.98" duration="1.00" waitingTime="0.00" timeLoss="0.90" traveltime="1.00">
        <walk depart="65.00" departPos="13.28" arrival="66.00" arrivalPos="13.28" duration="1.00" routeLength="0.10" timeLoss="0.90" maxSpeed="1.02"/>
    </personinfo>
    <personinfo id="ped_3663" depart="66.00" type="ped_pedestrian@ped_3663" speedFactor="1.01" duration="1.00" waitingTime="0.00" timeLoss="0.91" traveltime="1.00">
        <walk depart="66.00" departPos="61.90" arrival="67.00" arrivalPos="61.90" duration="1.00" routeLength="0.10" timeLoss="0.91" maxSpeed="1.09"/>
    </personinfo>
    <personinfo id="ped_1910" depart="66.00" type="ped_pedestrian@ped_1910" speedFactor="0.96" duration="1.00" waitingTime="0.00" timeLoss="0.94" traveltime="1.00">
        <walk depart="66.00" departPos="61.90" arrival="67.00" arrivalPos="61.90" duration="1.00" routeLength="0.10" timeLoss="0.94" maxSpeed="1.67"/>
    </personinfo>
    <personinfo id="ped_5234" depart="67.00" type="ped_pedestrian@ped_5234" speedFactor="1.14" duration="1.00" waitingTime="0.00" timeLoss="0.95" traveltime="1.00">
        <walk depart="67.00" departPos="13.28" arrival="68.00" arrivalPos="13.28" duration="1.00" routeLength="0.10" timeLoss="0.95" maxSpeed="1.95"/>
    </personinfo>
    <personinfo id="ped_343" depart="14.00" type="ped_pedestrian@ped_343" speedFactor="1.00" duration="58.00" waitingTime="0.00" timeLoss="29.21" traveltime="58.00">
        <walk depart="14.00" departPos="26.34" arrival="72.00" arrivalPos="2.13" duration="58.00" routeLength="44.58" timeLoss="29.21" maxSpeed="1.55"/>
    </personinfo>
    <personinfo id="ped_3428" depart="71.00" type="ped_pedestrian@ped_3428" speedFactor="0.73" duration="1.00" waitingTime="0.00" timeLoss="0.94" traveltime="1.00">
        <walk depart="71.00" departPos="61.90" arrival="72.00" arrivalPos="61.90" duration="1.00" routeLength="0.10" timeLoss="0.94" maxSpeed="1.63"/>
    </personinfo>
    <personinfo id="ped_3731" depart="71.00" type="ped_pedestrian@ped_3731" speedFactor="1.05" duration="1.00" waitingTime="0.00" timeLoss="0.94" traveltime="1.00">
        <walk depart="71.00" departPos="61.90" arrival="72.00" arrivalPos="61.90" duration="1.00" routeLength="0.10" timeLoss="0.94" maxSpeed="1.71"/>
    </personinfo>
    <personinfo id="ped_1328" depart="73.00" type="ped_pedestrian@ped_1328" speedFactor="0.89" duration="1.00" waitingTime="0.00" timeLoss="0.93" traveltime="1.00">
        <walk depart="73.00" departPos="2.13" arrival="74.00" arrivalPos="2.13" duration="1.00" routeLength="0.10" timeLoss="0.93" maxSpeed="1.40"/>
    </personinfo>
    <personinfo id="ped_85" depart="74.00" type="ped_pedestrian@ped_85" speedFactor="1.15" duration="1.00" waitingTime="0.00" timeLoss="0.95" traveltime="1.00">
        <walk depart="74.00" departPos="26.34" arrival="75.00" arrivalPos="26.34" duration="1.00" routeLength="0.10" timeLoss="0.95" maxSpeed="1.97"/>
    </personinfo>
    <personinfo id="ped_757" depart="75.00" type="ped_pedestrian@ped_757" speedFactor="0.93" duration="1.00" waitingTime="0.00" timeLoss="0.93" traveltime="1.00">
        <walk depart="75.00" departPos="13.28" arrival="76.00" arrivalPos="13.28" duration="1.00" routeLength="0.10" timeLoss="0.93" maxSpeed="1.42"/>
    </personinfo>
    <personinfo id="ped_159" depart="76.00" type="ped_pedestrian@ped_159" speedFactor="0.91" duration="1.00" waitingTime="0.00" timeLoss="0.91" traveltime="1.00">
        <walk depart="76.00" departPos="26.34" arrival="77.00" arrivalPos="26.34" duration="1.00" routeLength="0.10" timeLoss="0.91" maxSpeed="1.12"/>
    </personinfo>
    <personinfo id="ped_4720" depart="78.00" type="ped_pedestrian@ped_4720" speedFactor="0.97" duration="1.00" waitingTime="0.00" timeLoss="0.95" traveltime="1.00">
        <walk depart="78.00" departPos="26.34" arrival="79.00" arrivalPos="26.34" duration="1.00" routeLength="0.10" timeLoss="0.95" maxSpeed="1.92"/>
    </personinfo>
    <personinfo id="ped_2851" depart="79.00" type="ped_pedestrian@ped_2851" speedFactor="0.97" duration="1.00" waitingTime="0.00" timeLoss="0.94" traveltime="1.00">
        <walk depart="79.00" departPos="26.34" arrival="80.00" arrivalPos="26.34" duration="1.00" routeLength="0.10" timeLoss="0.94" maxSpeed="1.53"/>
    </personinfo>
    <personinfo id="ped_5112" depart="79.00" type="ped_pedestrian@ped_5112" speedFactor="1.24" duration="1.00" waitingTime="0.00" timeLoss="0.95" traveltime="1.00">
        <walk depart="79.00" departPos="13.28" arrival="80.00" arrivalPos="13.28" duration="1.00" routeLength="0.10" timeLoss="0.95" maxSpeed="1.96"/>
    </personinfo>
    <personinfo id="ped_375" depart="80.00" type="ped_pedestrian@ped_375" speedFactor="0.93" duration="1.00" waitingTime="0.00" timeLoss="0.92" traveltime="1.00">
        <walk depart="80.00" departPos="26.34" arrival="81.00" arrivalPos="26.34" duration="1.00" routeLength="0.10" timeLoss="0.92" maxSpeed="1.25"/>
    </personinfo>
    <personinfo id="ped_1699" depart="82.00" type="ped_pedestrian@ped_1699" speedFactor="1.05" duration="1.00" waitingTime="0.00" timeLoss="0.89" traveltime="1.00">
        <walk depart="82.00" departPos="61.90" arrival="83.00" arrivalPos="61.90" duration="1.00" routeLength="0.10" timeLoss="0.89" maxSpeed="0.92"/>
    </personinfo>
    <personinfo id="ped_6225" depart="82.00" type="ped_pedestrian@ped_6225" speedFactor="1.03" duration="1.00" waitingTime="0.00" timeLoss="0.94" traveltime="1.00">
        <walk depart="82.00" departPos="61.90" arrival="83.00" arrivalPos="61.90" duration="1.00" routeLength="0.10" timeLoss="0.94" maxSpeed="1.63"/>
    </personinfo>
    <personinfo id="ped_4592" depart="83.00" type="ped_pedestrian@ped_4592" speedFactor="1.02" duration="1.00" waitingTime="0.00" timeLoss="0.91" traveltime="1.00">
        <walk depart="83.00" departPos="26.34" arrival="84.00" arrivalPos="26.34" duration="1.00" routeLength="0.10" timeLoss="0.91" maxSpeed="1.11"/>
    </personinfo>
    <personinfo id="ped_2082" depart="83.00" type="ped_pedestrian@ped_2082" speedFactor="1.03" duration="1.00" waitingTime="0.00" timeLoss="0.91" traveltime="1.00">