<?xml version="1.0" encoding="UTF-8"?>

<!-- generated on 2025-03-27 14:23:06 by Eclipse SUMO sumo Version 1.22.0
<sumoConfiguration xmlns:xsi="http://www.w3.org/2001/XMLSchema-instance" xsi:noNamespaceSchemaLocation="http://sumo.dlr.de/xsd/sumoConfiguration.xsd">

    <input>
        <net-file value="KSUMarietta.net.xml.gz"/>
        <route-files value="osm.pedestrian.rou.xml"/>
        <additional-files value="osm.poly.xml.gz"/>
    </input>

    <output>
        <summary-output value="summary.xml"/>
        <tripinfo-output value="tripinfo.xml"/>
        <edgedata-output value="edgestats.xml"/>
    </output>

    <processing>
        <ignore-route-errors value="true"/>
        <tls.actuated.jam-threshold value="30"/>
    </processing>

    <routing>
        <device.rerouting.adaptation-steps value="18"/>
        <device.rerouting.adaptation-interval value="10"/>
    </routing>

    <report>
        <verbose value="true"/>
        <duration-log.statistics value="true"/>
        <no-step-log value="true"/>
    </report>

    <traci_server>
        <remote-port value="63613"/>
    </traci_server>

    <gui_only>
        <gui-settings-file value="osm.view.xml"/>
    </gui_only>

</sumoConfiguration>
-->

<tripinfos xmlns:xsi="http://www.w3.org/2001/XMLSchema-instance" xsi:noNamespaceSchemaLocation="http://sumo.dlr.de/xsd/tripinfo_file.xsd">
    <personinfo id="ped_3540_406039" depart="3540.00" type="ped_pedestrian@ped_3540_406039" speedFactor="1.06" duration="235.00" waitingTime="0.00" timeLoss="48.67" traveltime="235.00">
        <walk depart="3540.00" departPos="61.90" arrival="3775.00" arrivalPos="109.09" duration="235.00" routeLength="366.16" timeLoss="48.67" maxSpeed="1.97"/>
    </personinfo>
    <personinfo id="ped_3540_937513" depart="3540.00" type="ped_pedestrian@ped_3540_937513" speedFactor="0.94" duration="563.00" waitingTime="0.00" timeLoss="213.27" traveltime="563.00">
        <walk depart="3540.00" departPos="2.13" arrival="4103.00" arrivalPos="26.16" duration="563.00" routeLength="389.76" timeLoss="213.27" maxSpeed="1.11"/>
    </personinfo>
    <personinfo id="ped_7140_662510" depart="7140.00" type="ped_pedestrian@ped_7140_662510" speedFactor="0.98" duration="66.00" waitingTime="0.00" timeLoss="22.93" traveltime="66.00">
        <walk depart="7140.00" departPos="13.28" arrival="7206.00" arrivalPos="26.34" duration="66.00" routeLength="60.61" timeLoss="22.93" maxSpeed="1.41"/>
    </personinfo>
    <personinfo id="ped_7140_747545" depart="7140.00" type="ped_pedestrian@ped_7140_747545" speedFactor="1.04" duration="342.00" waitingTime="0.00" timeLoss="90.11" traveltime="342.00">
        <walk depart="7140.00" departPos="2.13" arrival="7482.00" arrivalPos="109.09" duration="342.00" routeLength="432.91" timeLoss="90.11" maxSpeed="1.72"/>
    </personinfo>
    <personinfo id="ped_7140_520438" depart="7140.00" type="ped_pedestrian@ped_7140_520438" speedFactor="0.98" duration="442.00" waitingTime="0.00" timeLoss="122.99" traveltime="442.00">
        <walk depart="7140.00" departPos="109.09" arrival="7582.00" arrivalPos="26.34" duration="442.00" routeLength="494.01" timeLoss="122.99" maxSpeed="1.55"/>
    </personinfo>
    <personinfo id="ped_14340_676832" depart="14340.00" type="ped_pedestrian@ped_14340_676832" speedFactor="1.05" duration="56.00" waitingTime="0.00" timeLoss="19.75" traveltime="56.00">
        <walk depart="14340.00" departPos="13.28" arrival="14396.00" arrivalPos="26.34" duration="56.00" routeLength="60.61" timeLoss="19.75" maxSpeed="1.67"/>
    </personinfo>
    <personinfo id="ped_14340_835526" depart="14340.00" type="ped_pedestrian@ped_14340_835526" speedFactor="1.22" duration="445.00" waitingTime="0.00" timeLoss="118.95" traveltime="445.00">
        <walk depart="14340.00" departPos="2.13" arrival="14785.00" arrivalPos="109.09" duration="445.00" routeLength="432.91" timeLoss="118.95" maxSpeed="1.33"/>
    </personinfo>
    <personinfo id="ped_17940_64487" depart="17940.00" type="ped_pedestrian@ped_17940_64487" speedFactor="1.01" duration="86.00" waitingTime="0.00" timeLoss="30.16" traveltime="86.00">
        <walk depart="17940.00" departPos="26.34" arrival="18026.00" arrivalPos="13.28" duration="86.00" routeLength="93.74" timeLoss="30.16" maxSpeed="1.68"/>
    </personinfo>
    <personinfo id="ped_17940_61768" depart="17940.00" type="ped_pedestrian@ped_17940_61768" speedFactor="1.09" duration="424.00" waitingTime="0.00" timeLoss="135.97" traveltime="424.00">
        <walk depart="17940.00" departPos="2.13" arrival="18364.00" arrivalPos="11.22" duration="424.00" routeLength="297.32" timeLoss="135.97" maxSpeed="1.03"/>
    </personinfo>
    <personinfo id="ped_21540_761421" depart="21540.00" type="ped_pedestrian@ped_21540_761421" speedFactor="0.99" duration="80.00" waitingTime="0.00" timeLoss="38.58" traveltime="80.00">
        <walk depart="21540.00" departPos="26.34" arrival="21620.00" arrivalPos="2.13" duration="80.00" routeLength="44.58" timeLoss="38.58" maxSpeed="1.08"/>
    </personinfo>
    <personinfo id="ped_21540_789511" depart="21540.00" type="ped_pedestrian@ped_21540_789511" speedFactor="1.25" duration="550.00" waitingTime="0.00" timeLoss="175.41" traveltime="550.00">
        <walk depart="21540.00" departPos="109.09" arrival="22090.00" arrivalPos="11.22" duration="550.00" routeLength="623.86" timeLoss="175.41" maxSpeed="1.67"/>
    </personinfo>
    <personinfo id="ped_21540_337383" depart="21540.00" type="ped_pedestrian@ped_21540_337383" speedFactor="0.91" duration="805.00" waitingTime="0.00" timeLoss="242.74" traveltime="805.00">
        <walk depart="21540.00" departPos="13.28" arrival="22345.00" arrivalPos="109.09" duration="805.00" routeLength="464.32" timeLoss="242.74" maxSpeed="0.83"/>
    </personinfo>
    <personinfo id="ped_82740_606406" depart="82740.00" type="ped_pedestrian@ped_82740_606406" speedFactor="1.08" duration="1.00" waitingTime="0.00" timeLoss="0.93" traveltime="1.00">
        <walk depart="82740.00" departPos="61.90" arrival="82741.00" arrivalPos="61.90" duration="1.00" routeLength="0.10" timeLoss="0.93" maxSpeed="1.51"/>
    </personinfo>
    <personinfo id="ped_82740_418523" depart="82740.00" type="ped_pedestrian@ped_82740_418523" speedFactor="1.01" duration="1.00" waitingTime="0.00" timeLoss="0.90" traveltime="1.00">
        <walk depart="82740.00" departPos="13.28" arrival="82741.00" arrivalPos="13.28" duration="1.00" routeLength="0.10" timeLoss="0.90" maxSpeed="0.98"/>
    </personinfo>
    <personinfo id="ped_82740_391186" depart="82740.00" type="ped_pedestrian@ped_82740_391186" speedFactor="0.96" duration="49.00" waitingTime="0.00" timeLoss="17.78" traveltime="49.00">
        <walk depart="82740.00" departPos="13.28" arrival="82789.00" arrivalPos="26.34" duration="49.00" routeLength="60.61" timeLoss="17.78" maxSpeed="1.94"/>
    </personinfo>
    <personinfo id="ped_82740_142992" depart="82740.00" type="ped_pedestrian@ped_82740_142992" speedFactor="1.09" duration="80.00" waitingTime="0.00" timeLoss="27.10" traveltime="80.00">
        <walk depart="82740.00" departPos="13.28" arrival="82820.00" arrivalPos="26.34" duration="80.00" routeLength="60.61" timeLoss="27.10" maxSpeed="1.15"/>
    </personinfo>
    <personinfo id="ped_82740_296261" depart="82740.00" type="ped_pedestrian@ped_82740_296261" speedFactor="1.06" duration="80.00" waitingTime="0.00" timeLoss="29.32" traveltime="80.00">
        <walk depart="82740.00" departPos="13.28" arrival="82820.00" arrivalPos="26.34" duration="80.00" routeLength="60.61" timeLoss="29.32" maxSpeed="1.20"/>
    </personinfo>
    <personinfo id="ped_82740_770755" depart="82740.00" type="ped_pedestrian@ped_82740_770755" speedFactor="0.85" duration="102.00" waitingTime="0.00" timeLoss="34.31" traveltime="102.00">
        <walk depart="82740.00" departPos="2.13" arrival="82842.00" arrivalPos="26.34" duration="102.00" routeLength="130.29" timeLoss="34.31" maxSpeed="1.92"/>
    </personinfo>
    <personinfo id="ped_82740_950525" depart="82740.00" type="ped_pedestrian@ped_82740_950525" speedFactor="1.19" duration="155.00" waitingTime="0.00" timeLoss="67.33" traveltime="155.00">
        <walk depart="82740.00" departPos="13.28" arrival="82895.00" arrivalPos="2.13" duration="155.00" routeLength="105.19" timeLoss="67.33" maxSpeed="1.20"/>
    </personinfo>
    <personinfo id="ped_82740_738201" depart="82740.00" type="ped_pedestrian@ped_82740_738201" speedFactor="0.99" duration="172.00" waitingTime="0.00" timeLoss="69.55" traveltime="172.00">
        <walk depart="82740.00" departPos="2.13" arrival="82912.00" arrivalPos="37.25" duration="172.00" routeLength="173.41" timeLoss="69.55" maxSpeed="1.69"/>
    </personinfo>
    <personinfo id="ped_82740_164318" depart="82740.00" type="ped_pedestrian@ped_82740_164318" speedFactor="0.85" duration="180.00" waitingTime="0.00" timeLoss="67.65" traveltime="180.00">
        <walk depart="82740.00" departPos="2.13" arrival="82920.00" arrivalPos="13.28" duration="180.00" routeLength="155.01" timeLoss="67.65" maxSpeed="1.38"/>
    </personinfo>
    <personinfo id="ped_82740_686116" depart="82740.00" type="ped_pedestrian@ped_82740_686116" speedFactor="1.05" duration="192.00" waitingTime="0.00" timeLoss="63.39" traveltime="192.00">
        <walk depart="82740.00" departPos="61.90" arrival="82932.00" arrivalPos="11.22" duration="192.00" routeLength="249.11" timeLoss="63.39" maxSpeed="1.94"/>
    </personinfo>
    <personinfo id="ped_82740_456371" depart="82740.00" type="ped_pedestrian@ped_82740_456371" speedFactor="0.96" duration="232.00" waitingTime="0.00" timeLoss="62.95" traveltime="232.00">
        <walk depart="82740.00" departPos="2.13" arrival="82972.00" arrivalPos="61.90" duration="232.00" routeLength="331.39" timeLoss="62.95" maxSpeed="1.96"/>
    </personinfo>
    <personinfo id="ped_82740_90094" depart="82740.00" type="ped_pedestrian@ped_82740_90094" speedFactor="0.94" duration="237.00" waitingTime="0.00" timeLoss="88.09" traveltime="237.00">
        <walk depart="82740.00" departPos="61.90" arrival="82977.00" arrivalPos="2.13" duration="237.00" routeLength="243.85" timeLoss="88.09" maxSpeed="1.64"/>
    </personinfo>
    <personinfo id="ped_82740_466060" depart="82740.00" type="ped_pedestrian@ped_82740_466060" speedFactor="0.84" duration="243.00" waitingTime="0.00" timeLoss="78.62" traveltime="243.00">
        <walk depart="82740.00" departPos="61.90" arrival="82983.00" arrivalPos="2.13" duration="243.00" routeLength="243.85" timeLoss="78.62" maxSpeed="1.48"/>
    </personinfo>
    <personinfo id="ped_82740_214012" depart="82740.00" type="ped_pedestrian@ped_82740_214012" speedFactor="1.11" duration="266.00" waitingTime="0.00" timeLoss="65.93" traveltime="266.00">
        <walk depart="82740.00" departPos="61.90" arrival="83006.00" arrivalPos="109.09" duration="266.00" routeLength="366.16" timeLoss="65.93" maxSpeed="1.83"/>
    </personinfo>
    <personinfo id="ped_82740_279275" depart="82740.00" type="ped_pedestrian@ped_82740_279275" speedFactor="1.12" duration="306.00" waitingTime="0.00" timeLoss="124.27" traveltime="306.00">
        <walk depart="82740.00" departPos="61.90" arrival="83046.00" arrivalPos="13.28" duration="306.00" routeLength="286.42" timeLoss="124.27" maxSpeed="1.58"/>
    </personinfo>
    <personinfo id="ped_82740_664912" depart="82740.00" type="ped_pedestrian@ped_82740_664912" speedFactor="1.16" duration="311.00" waitingTime="0.00" timeLoss="110.23" traveltime="311.00">
        <walk depart="82740.00" departPos="61.90" arrival="83051.00" arrivalPos="37.25" duration="311.00" routeLength="380.20" timeLoss="110.23" maxSpeed="1.89"/>
    </personinfo>
    <personinfo id="ped_82740_210855" depart="82740.00" type="ped_pedestrian@ped_82740_210855" speedFactor="0.76" duration="317.00" waitingTime="0.00" timeLoss="66.79" traveltime="317.00">
        <walk depart="82740.00" departPos="61.90" arrival="83057.00" arrivalPos="109.09" duration="317.00" routeLength="366.16" timeLoss="66.79" maxSpeed="1.46"/>
    </personinfo>
    <personinfo id="ped_82740_518312" depart="82740.00" type="ped_pedestrian@ped_82740_518312" speedFactor="0.93" duration="330.00" waitingTime="0.00" timeLoss="132.91" traveltime="330.00">
        <walk depart="82740.00" departPos="61.90" arrival="83070.00" arrivalPos="13.28" duration="330.00" routeLength="286.42" timeLoss="132.91" maxSpeed="1.45"/>
    </personinfo>
    <personinfo id="ped_82740_529381" depart="82740.00" type="ped_pedestrian@ped_82740_529381" speedFactor="0.95" duration="342.00" waitingTime="0.00" timeLoss="107.51" traveltime="342.00">
        <walk depart="82740.00" departPos="61.90" arrival="83082.00" arrivalPos="2.13" duration="342.00" routeLength="243.85" timeLoss="107.51" maxSpeed="1.04"/>
    </personinfo>
    <personinfo id="ped_82740_965355" depart="82740.00" type="ped_pedestrian@ped_82740_965355" speedFactor="0.88" duration="351.00" waitingTime="0.00" timeLoss="102.34" traveltime="351.00">
        <walk depart="82740.00" departPos="2.13" arrival="83091.00" arrivalPos="109.09" duration="351.00" routeLength="432.91" timeLoss="102.34" maxSpeed="1.74"/>
    </personinfo>
    <personinfo id="ped_82740_248596" depart="82740.00" type="ped_pedestrian@ped_82740_248596" speedFactor="0.84" duration="351.00" waitingTime="0.00" timeLoss="110.23" traveltime="351.00">
        <walk depart="82740.00" departPos="13.28" arrival="83091.00" arrivalPos="109.09" duration="351.00" routeLength="464.32" timeLoss="110.23" maxSpeed="1.93"/>
    </personinfo>
    <personinfo id="ped_82740_906154" depart="82740.00" type="ped_pedestrian@ped_82740_906154" speedFactor="1.07" duration="423.00" waitingTime="0.00" timeLoss="144.82" traveltime="423.00">
        <walk depart="82740.00" departPos="13.28" arrival="83163.00" arrivalPos="26.16" duration="423.00" routeLength="410.91" timeLoss="144.82" maxSpeed="1.48"/>
    </personinfo>
    <personinfo id="ped_82740_731176" depart="82740.00" type="ped_pedestrian@ped_82740_731176" speedFactor="0.94" duration="425.00" waitingTime="0.00" timeLoss="162.02" traveltime="425.00">
        <walk depart="82740.00" departPos="2.13" arrival="83165.00" arrivalPos="26.16" duration="425.00" routeLength="389.76" timeLoss="162.02" maxSpeed="1.48"/>
    </personinfo>
    <personinfo id="ped_82740_537960" depart="82740.00" type="ped_pedestrian@ped_82740_537960" speedFactor="0.98" duration="438.00" waitingTime="0.00" timeLoss="175.35" traveltime="438.00">
        <walk depart="82740.00" departPos="61.90" arrival="83178.00" arrivalPos="13.28" duration="438.00" routeLength="286.42" timeLoss="175.35" maxSpeed="1.09"/>
    </personinfo>
    <personinfo id="ped_82740_404837" depart="82740.00" type="ped_pedestrian@ped_82740_404837" speedFactor="1.13" duration="445.00" waitingTime="0.00" timeLoss="137.04" traveltime="445.00">
        <walk depart="82740.00" departPos="13.28" arrival="83185.00" arrivalPos="109.09" duration="445.00" routeLength="464.32" timeLoss="137.04" maxSpeed="1.51"/>
    </personinfo>
    <personinfo id="ped_82740_570341" depart="82740.00" type="ped_pedestrian@ped_82740_570341" speedFactor="0.97" duration="448.00" waitingTime="0.00" timeLoss="94.58" traveltime="448.00">
        <walk depart="82740.00" departPos="61.90" arrival="83188.00" arrivalPos="109.09" duration="448.00" routeLength="366.16" timeLoss="94.58" maxSpeed="1.04"/>
    </personinfo>
    <personinfo id="ped_82740_8219" depart="82740.00" type="ped_pedestrian@ped_82740_8219" speedFactor="1.10" duration="462.00" waitingTime="0.00" timeLoss="188.53" traveltime="462.00">
        <walk depart="82740.00" departPos="61.90" arrival="83202.00" arrivalPos="13.28" duration="462.00" routeLength="286.42" timeLoss="188.53" maxSpeed="1.05"/>
    </personinfo>
    <personinfo id="ped_82740_130201" depart="82740.00" type="ped_pedestrian@ped_82740_130201" speedFactor="1.09" duration="466.00" waitingTime="0.00" timeLoss="122.29" traveltime="466.00">
        <walk depart="82740.00" departPos="2.13" arrival="83206.00" arrivalPos="109.09" duration="466.00" routeLength="432.91" timeLoss="122.29" maxSpeed="1.26"/>
    </personinfo>
    <personinfo id="ped_82740_796904" depart="82740.00" type="ped_pedestrian@ped_82740_796904" speedFactor="1.07" duration="470.00" waitingTime="0.00" timeLoss="169.64" traveltime="470.00">
        <walk depart="82740.00" departPos="13.28" arrival="83210.00" arrivalPos="11.22" duration="470.00" routeLength="397.10" timeLoss="169.64" maxSpeed="1.32"/>
    </personinfo>
    <personinfo id="ped_82740_282185" depart="82740.00" type="ped_pedestrian@ped_82740_282185" speedFactor="1.02" duration="489.00" waitingTime="0.00" timeLoss="141.84" traveltime="489.00">
        <walk depart="82740.00" departPos="61.90" arrival="83229.00" arrivalPos="11.22" duration="489.00" routeLength="249.11" timeLoss="141.84" maxSpeed="0.72"/>
    </personinfo>
    <personinfo id="ped_82740_871899" depart="82740.00" type="ped_pedestrian@ped_82740_871899" speedFactor="0.97" duration="537.00" waitingTime="0.00" timeLoss="171.13" traveltime="537.00">
        <walk depart="82740.00" departPos="61.90" arrival="83277.00" arrivalPos="10.52" duration="537.00" routeLength="310.50" timeLoss="171.13" maxSpeed="0.85"/>
    </personinfo>
    <personinfo id="ped_82740_540497" depart="82740.00" type="ped_pedestrian@ped_82740_540497" speedFactor="0.86" duration="567.00" waitingTime="0.00" timeLoss="206.84" traveltime="567.00">
        <walk depart="82740.00" departPos="26.34" arrival="83307.00" arrivalPos="26.16" duration="567.00" routeLength="364.26" timeLoss="206.84" maxSpeed="1.01"/>
    </personinfo>
    <personinfo id="ped_82740_72037" depart="82740.00" type="ped_pedestrian@ped_82740_72037" speedFactor="1.10" duration="579.00" waitingTime="0.00" timeLoss="179.71" traveltime="579.00">
        <walk depart="82740.00" departPos="13.28" arrival="83319.00" arrivalPos="109.09" duration="579.00" routeLength="464.32" timeLoss="179.71" maxSpeed="1.16"/>
    </personinfo>
    <personinfo id="ped_82740_175208" depart="82740.00" type="ped_pedestrian@ped_82740_175208" speedFactor="1.23" duration="719.00" waitingTime="0.00" timeLoss="230.17" traveltime="719.00">
        <walk depart="82740.00" departPos="109.09" arrival="83459.00" arrivalPos="11.22" duration="719.00" routeLength="623.86" timeLoss="230.17" maxSpeed="1.28"/>
    </personinfo>
    <personinfo id="ped_82740_461678" depart="82740.00" type="ped_pedestrian@ped_82740_461678" speedFactor="1.07" duration="820.00" waitingTime="0.00" timeLoss="285.17" traveltime="820.00">
        <walk depart="82740.00" departPos="13.28" arrival="83560.00" arrivalPos="11.22" duration="820.00" routeLength="397.10" timeLoss="285.17" maxSpeed="0.74"/>
    </personinfo>
</tripinfos>
